10000 3.141592653589793 3.1592 0.01629802245672769 0.01760734641020667 3.1732 0.016197536108927185 0.031607346410206905 3.1414 0.0011999999999998678 0.00019265358979314584
20000 3.141592653589793 3.1386 0.011626672008790822 0.0029926535897932816 3.159 0.011525447930557842 0.017407346410206692 3.1421 0.0013999999999998458 0.0005073464102069991
30000 3.141592653589793 3.1324 0.009517825802146204 0.009192653589793043 3.1298666666666666 0.009527856204406732 0.011725986923126541 3.1422666666666665 0.0015999999999998238 0.0006740130768734254
40000 3.141592653589793 3.1564 0.008158950667824877 0.014807346410206979 3.1388 0.008220606060382654 0.0027926535897933036 3.14155 0.000300000000000189 4.265358979305134e-05
50000 3.141592653589793 3.13752 0.007356695249362992 0.004072653589793251 3.1524 0.007310231514801702 0.010807346410206975 3.14236 0.00023999999999979593 0.0007673464102069261
60000 3.141592653589793 3.1370666666666667 0.006716992625120702 0.004525986923126446 3.1415333333333333 0.006704353870047048 5.932025645982719e-05 3.141633333333333 0.0007333333333332526 4.067974353993975e-05
70000 3.141592653589793 3.1450857142857145 0.006197670883875623 0.0034930606959213684 3.1389714285714287 0.006213745230073127 0.0026212250183643704 3.1415428571428574 0.00022857142857146684 4.979644693570151e-05
80000 3.141592653589793 3.1466 0.005793647857783557 0.0050073464102067256 3.1357 0.0058204225684223305 0.005892653589793184 3.1411 0.0006999999999997009 0.0004926535897933348
90000 3.141592653589793 3.143111111111111 0.005470422477747767 0.0015184575213180729 3.1420444444444446 0.0054728973505951016 0.0004517908546515237 3.1413333333333333 0.00035555555555522034 0.00025932025645980517
100000 3.141592653589793 3.1422 0.005191704113294593 0.000607346410206766 3.148 0.005178895635171652 0.0064073464102070155 3.14098 0.0004399999999997739 0.0006126535897932328
110000 3.141592653589793 3.1449818181818183 0.004944249769390571 0.0033891645920252067 3.1457454545454544 0.004942641319438635 0.004152800955661284 3.1410363636363634 0.0005454545454548487 0.0005562899534297117
120000 3.141592653589793 3.1490666666666667 0.004725503320243214 0.007474013076873565 3.1384333333333334 0.00474690209992752 0.003159320256459708 3.14095 0.00036666666666684833 0.0006426535897929853
130000 3.141592653589793 3.1391384615384617 0.004559321445333206 0.002454192051331461 3.1421846153846156 0.004553455411830497 0.0005919617948224598 3.1412 6.153846153811315e-05 0.0003926535897931238
140000 3.141592653589793 3.1410285714285715 0.004389967295016212 0.0005640821612216129 3.136257142857143 0.00439879829799825 0.0053355107326500395 3.141057142857143 0.00011428571428551138 0.0005355107326501241
150000 3.141592653589793 3.1401866666666667 0.004242620546435543 0.0014059869231264344 3.1374133333333334 0.0042475804164689305 0.004179320256459729 3.14124 2.6666666666397276e-05 0.00035265358979330585
160000 3.141592653589793 3.140125 0.004108006651935187 0.001467653589793283 3.142175 0.0041044459654859325 0.0005823464102068243 3.1413374999999997 0.00012500000000015277 0.00025515358979344427
170000 3.141592653589793 3.1408705882352943 0.003984096547450843 0.0007220653544988132 3.1450823529411767 0.0039769826021175 0.003489699351383546 3.141435294117647 0.0003764705882352004 0.00015735947214601254
180000 3.141592653589793 3.142 0.0038699956933653896 0.0004073464102067881 3.1414444444444443 0.0038709061387102984 0.00014820914534885432 3.1414666666666666 4.444444444473561e-05 0.00012598692312648652
190000 3.141592653589793 3.139915789473684 0.003770098416214083 0.0016768641161091224 3.1405684210526315 0.0037690594086292085 0.0010242325371616623 3.1414947368421053 0.0005052631578950084 9.791674768777625e-05
200000 3.141592653589793 3.13744 0.0036784713172729787 0.0041526535897933314 3.14212 0.003671213631484826 0.000527346410206686 3.14142 0.00048000000000003595 0.00017265358979301482
210000 3.141592653589793 3.135409523809524 0.0035928800049162242 0.0061831297802692475 3.1430285714285713 0.0035813576069750283 0.0014359178387781668 3.1415333333333333 0.0001714285714284891 5.932025645982719e-05
220000 3.141592653589793 3.1403636363636362 0.0035029667795245063 0.00122901722615687 3.144418181818182 0.003496951285908632 0.002825528228388663 3.141481818181818 0.00019999999999997797 0.00011083540797507396
230000 3.141592653589793 3.1452521739130437 0.003418871831560972 0.0036595203232505646 3.1416347826086954 0.0034241279582563843 4.212901890232601e-05 3.141539130434783 5.2173913043684905e-05 5.352315501028215e-05
240000 3.141592653589793 3.1359166666666667 0.0033601173878234822 0.00567598692312643 3.1422333333333334 0.0033511832563428386 0.0006406797435403178 3.1414666666666666 0.0002666666666666373 0.00012598692312648652
250000 3.141592653589793 3.150544 0.0032718487153681176 0.008951346410206895 3.143168 0.0032821742328986736 0.001575346410207068 3.14148 0.00036799999999992394 0.00011265358979306583
260000 3.141592653589793 3.136676923076923 0.0032272669864908555 0.004915730512870198 3.1438 0.003217572878859037 0.002207346410207034 3.141338461538462 0.00015384615384617106 0.000254192051331259
270000 3.141592653589793 3.140296296296296 0.003162116237381957 0.0012963572934969747 3.146074074074074 0.0031543704054176986 0.004481420484280907 3.141414814814815 0.00034074074074075256 0.00017783877497823397
280000 3.141592653589793 3.1399142857142857 0.003105637397899233 0.0016783678755074583 3.1440285714285716 0.003100229615779117 0.0024359178387785008 3.1414 0.00048571428571442254 0.00019265358979314584
290000 3.141592653589793 3.1429379310344827 0.00304771982930519 0.0013452774446895965 3.137351724137931 0.0030549174917468636 0.004240929451861941 3.141303448275862 0.0004827586206896939 0.00028920531393117344
300000 3.141592653589793 3.144773333333333 0.0029941576529907317 0.0031806797435400824 3.1431066666666667 0.002996279442142773 0.0015140130768735993 3.141426666666667 0.0005066666666668773 0.00016598692312630448
310000 3.141592653589793 3.1393806451612902 0.0029522062528653976 0.0022120084285028874 3.1373548387096775 0.002954725013603107 0.0042378148801156534 3.141348387096774 0.000322580645161441 0.0002442664930191185
320000 3.141592653589793 3.1417625 0.0029027887418791726 0.0001698464102068975 3.1417125 0.002902850198158565 0.00011984641020701403 3.14138125 0.0001875000000000071 0.0002114035897933242
330000 3.141592653589793 3.140969696969697 0.0028594278674380726 0.0006229566200959269 3.1435030303030302 0.0028563596346906778 0.0019103767132371274 3.1413454545454544 0.0001454545454544487 0.0002471990443386751
340000 3.141592653589793 3.142176470588235 0.002815624948931045 0.0005838169984420105 3.140823529411765 0.0028172377349309856 0.0007691241780283242 3.141435294117647 0.00011764705882377768 0.00015735947214601254
350000 3.141592653589793 3.141737142857143 0.0027756267228555317 0.00014448926734988987 3.144182857142857 0.002772747780719855 0.00259020355306383 3.1414114285714287 0.00019428571428603547 0.00018122501836437266
360000 3.141592653589793 3.139588888888889 0.0027392908471602787 0.0020037647009041315 3.1431666666666667 0.0027351467420628976 0.0015740130768735483 3.141527777777778 7.777777777784323e-05 6.487581201497505e-05
370000 3.141592653589793 3.1427675675675677 0.002698389052206793 0.0011749139777745832 3.138951351351351 0.0027027462606278177 0.002641302238441945 3.1415297297297298 9.729729729723857e-05 6.292386006334638e-05
380000 3.141592653589793 3.1437684210526315 0.0026615160890200444 0.0021757674628384294 3.1404947368421054 0.0026652104465320994 0.0010979167476876661 3.1415526315789473 0.00011578947368429127 4.002201084585266e-05
390000 3.141592653589793 3.1411384615384614 0.002630103347680678 0.00045419205133168106 3.1387692307692308 0.0026327350695218832 0.00282342282056236 3.1415025641025642 9.230769230761382e-05 9.008948722888377e-05
400000 3.141592653589793 3.14649 0.0025911197771909347 0.004897346410206893 3.14591 0.002591761115486919 0.00431734641020709 3.141565 9.000000000014552e-05 2.7653589793175115e-05
410000 3.141592653589793 3.1382146341463413 0.002568318918069737 0.0033780194434518407 3.141268292682927 0.002565011617011965 0.00032436090686616126 3.141541463414634 0.00031219512195113097 5.1190175159199214e-05
420000 3.141592653589793 3.1403333333333334 0.0025352936755263723 0.001259320256459695 3.1410285714285715 0.0025345487995112634 0.0005640821612216129 3.141547619047619 0.0003714285714284671 4.503454217408276e-05
430000 3.141592653589793 3.1435813953488374 0.002502195125685578 0.001988741759044288 3.1452093023255814 0.00250046305193842 0.0036166487357882637 3.141479069767442 0.00042790697674410794 0.00011358382235115982
440000 3.141592653589793 3.1417636363636365 0.0024755053656125565 0.00017098277384341998 3.138181818181818 0.002479251238121708 0.0034108354079749326 3.1414454545454547 0.0002909090909088974 0.0001471990443384641
450000 3.141592653589793 3.142533333333333 0.002447047010501625 0.0009406797435400627 3.145351111111111 0.0024441180332820545 0.0037584575213180926 3.1413866666666665 0.0003022222222224258 0.00020598692312656652
460000 3.141592653589793 3.144895652173913 0.0024178745362644035 0.003302998584119976 3.1412173913043477 0.002421651819381583 0.0003752622854453769 3.1414347826086955 0.0003304347826085241 0.00015787098109765196
470000 3.141592653589793 3.1444340425531916 0.0023924841190897193 0.0028413889633984724 3.1467063829787234 0.002390168012983407 0.005113729388930288 3.1414553191489363 0.00023829787234053157 0.00013733444085684
480000 3.141592653589793 3.142 0.002369878688878399 0.0004073464102067881 3.1433666666666666 0.002368505447162987 0.0017740130768735263 3.1414875 0.0002583333333334714 0.00010515358979290568
490000 3.141592653589793 3.1463510204081633 0.0023412360846570626 0.004758366818370163 3.1429632653061224 0.0023446138771621126 0.0013706117163292397 3.1414816326530612 0.0002530612244902031 0.00011102093673187596
500000 3.141592653589793 3.141296 0.002322689579080252 0.0002966535897930278 3.143456 0.002320563886672375 0.001863346410206912 3.141488 0.00020800000000020802 0.00010465358979327988
510000 3.141592653589793 3.1426980392156865 0.002298439876317056 0.0011053856258933514 3.142549019607843 0.0022985851307958972 0.0009563660180500477 3.141494117647059 0.0001176470588233336 9.85359427341237e-05
520000 3.141592653589793 3.1394153846153845 0.0022793945642267583 0.0021772689744086193 3.142776923076923 0.0022761560478151456 0.0011842694871297965 3.141469230769231 0.00019999999999997797 0.0001234228205619914
530000 3.141592653589793 3.1447924528301887 0.002252650531038241 0.0031997992403955955 3.140958490566038 0.0022563176390552435 0.0006341630237551854 3.1414981132075472 0.0002339622641507333 9.454038224587791e-05
540000 3.141592653589793 3.139822222222222 0.0022364014173437267 0.001770431367571046 3.1408814814814816 0.0022354009687602983 0.0007111721083115086 3.141511111111111 0.00017777777777761017 8.1542478682195e-05
550000 3.141592653589793 3.1433745454545456 0.0022126473854583465 0.0017818918647525273 3.138538181818182 0.002217177078482763 0.0030544717716112224 3.1415745454545454 0.00025454545454550725 1.8108135247718593e-05
560000 3.141592653589793 3.13545 0.002200143379053478 0.006142653589793046 3.1434142857142855 0.002192765609919066 0.0018216321244923783 3.141492857142857 0.00031428571428548935 9.979644693602907e-05
570000 3.141592653589793 3.1411298245614034 0.002175551038685054 0.00046282902838967743 3.1405543859649123 0.002176080369974838 0.0010382676248807954 3.1414912280701754 0.00028771929824600306 0.00010142551961767055
580000 3.141592653589793 3.143751724137931 0.0021543188352748173 0.002159070548137798 3.1424689655172413 0.002155492048325971 0.0008763119274481923 3.1414620689655175 0.0003724137931038207 0.00013058462427562034
590000 3.141592653589793 3.1441559322033896 0.0021356169286108266 0.002563278613596509 3.141708474576271 0.0021378358132802438 0.0001158209864779991 3.141491525423729 0.000366101694915244 0.00010112816606433483
600000 3.141592653589793 3.1417533333333334 0.0021199053932594186 0.0001606797435402818 3.1412733333333334 0.0021203361284720178 0.00031932025645975415 3.141423333333333 0.00044666666666648425 0.00016932025646010374
610000 3.141592653589793 3.140170491803279 0.0021038650028455896 0.00142216178651422 3.1421704918032787 0.0021020858367360555 0.0005778382134855597 3.141472131147541 0.000334426229508189 0.00012052244225202458
620000 3.141592653589793 3.142335483870968 0.002084918828113321 0.0007428302811747223 3.139541935483871 0.0020873830572898603 0.002050718105921945 3.1413870967741935 0.0004516129032259286 0.000205556815599639
630000 3.141592653589793 3.143034920634921 0.0020676922072262113 0.001442267045127732 3.1405142857142856 0.0020699003749055983 0.0010783678755075243 3.141415873015873 0.0003301587301587361 0.0001767805739198991
640000 3.141592653589793 3.13850625 0.0020554057988596414 0.003086403589793285 3.144175 0.002050481486663178 0.002582346410207048 3.1413875 0.00028749999999977405 0.0002051535897931167
650000 3.141592653589793 3.142006153846154 0.0020365211455502007 0.00041350025636077703 3.13824 0.0020397623173753886 0.0033526535897929755 3.141390769230769 0.00020923076923073936 0.00020188435902390722
660000 3.141592653589793 3.140690909090909 0.00202215915580103 0.0009017444988841383 3.14149696969697 0.002021469862828079 9.568389282321732e-05 3.1413575757575756 0.0002666666666666373 0.00023507783221754508
670000 3.141592653589793 3.1395880597014925 0.0020079465467501 0.002004593888300654 3.141719402985075 0.0020061386407825618 0.00012674939528167783 3.1414059701492536 0.00018507462686567777 0.00018668344053951458
680000 3.141592653589793 3.1431235294117648 0.001990148012713535 0.0015308758219716445 3.1423882352941175 0.0019907688138969563 0.0007955817043243663 3.141405882352941 8.235294117664438e-05 0.00018677123685195696
690000 3.141592653589793 3.143773913043478 0.001975128407435027 0.0021812594536849694 3.1418202898550724 0.001976765923287686 0.00022763626527932956 3.1414028985507247 3.478260869549388e-05 0.00018975503906837332
700000 3.141592653589793 3.1400114285714285 0.001964097009070046 0.0015812250183646626 3.1420628571428573 0.0019623937388282757 0.0004702035530641524 3.1414114285714287 4.571428571420455e-05 0.00018122501836437266
710000 3.141592653589793 3.1421915492957746 0.0019484188117032332 0.0005988957059814837 3.137774647887324 0.0019520552010438535 0.0038180057024690406 3.1414535211267607 6.760563380270312e-05 0.00013913246303243199
720000 3.141592653589793 3.13535 0.0019404253462335405 0.006242653589793257 3.1467277777777776 0.001931110577014357 0.005135124187984452 3.1414583333333335 4.999999999988347e-05 0.0001343202564596524
730000 3.141592653589793 3.1425698630136987 0.0019212346587235585 0.0009772094239055562 3.1437095890410958 0.0019203054751054038 0.0021169354513026484 3.141435616438356 0.00015342465753453993 0.00015703715143722263
740000 3.141592653589793 3.142610810810811 0.0019081760553294827 0.0010181572210177237 3.140756756756757 0.0019096745236741276 0.0008358968330361982 3.1414675675675676 0.00014594594594585786 0.0001250860222254957
750000 3.141592653589793 3.1418506666666666 0.001896022874346154 0.00025801307687345343 3.140624 0.001897007078048296 0.0009686535897932558 3.141437333333333 0.0001866666666665573 0.0001553202564599232
760000 3.141592653589793 3.1416263157894737 0.001883686669070213 3.366219968059525e-05 3.141384210526316 0.0018838797047726365 0.00020844306347722608 3.1414263157894737 0.00018947368421073918 0.00016633780031938272
770000 3.141592653589793 3.14305974025974 0.0018702782729952505 0.0014670866699471041 3.1395064935064934 0.0018730920860093414 0.0020861600832997595 3.1414363636363634 0.00027532467532465077 0.0001562899534297557
780000 3.141592653589793 3.1428307692307693 0.0018584311804409489 0.0012381156409762006 3.14045641025641 0.001860300215744437 0.0011362433333830246 3.1414692307692307 0.0002205128205128304 0.00012342282056243548
790000 3.141592653589793 3.1400253164556964 0.0018488252437902461 0.0015673371340967357 3.1458632911392406 0.001844251183508593 0.0042706375494474536 3.141453164556962 0.0002430379746836131 0.00013948903283100833
800000 3.141592653589793 3.139885 0.001837342573792038 0.001707653589793079 3.141865 0.0018358051100862394 0.0002723464102070139 3.1414925 0.00018500000000010175 0.00010015358979309497
810000 3.141592653589793 3.1414814814814815 0.0018247340504462094 0.00011117210831157465 3.141748148148148 0.0018245280689321625 0.00015549455835506265 3.1414592592592596 0.0001827160493825808 0.00013339433053349836
820000 3.141592653589793 3.1427317073170733 0.0018126130730388853 0.0011390537272801815 3.144229268292683 0.0018114605956891865 0.0026366147028897835 3.1414731707317074 3.902439024372484e-05 0.00011948285808571768
830000 3.141592653589793 3.1423903614457833 0.0018019214182870612 0.000797707855990204 3.1418506024096384 0.0018023335615809017 0.0002579488198453106 3.1414698795180724 9.638554216850892e-05 0.00012277407172067711
840000 3.141592653589793 3.1446190476190474 0.001789468940851176 0.003026394029254309 3.1421047619047617 0.0017913803911384421 0.0005121083149686179 3.1414738095238093 4.7619047616187515e-06 0.00011884406598383634
850000 3.141592653589793 3.1436141176470587 0.001779671731104409 0.002021464057265554 3.139618823529412 0.0017826843397981853 0.001973830060381321 3.1415011764705882 1.8823529411626794e-05 9.147711920487467e-05
860000 3.141592653589793 3.1424186046511626 0.001770192385992725 0.000825951061369512 3.1428 0.0017699061070878812 0.0012073464102067 3.141486046511628 5.116279069738994e-05 0.00010660707816523285
870000 3.141592653589793 3.142652873563218 0.0017598146488534577 0.0010602199734250917 3.1432827586206895 0.00175934435731978 0.0016901050308963939 3.1414620689655175 3.6781609195291054e-05 0.00013058462427562034
880000 3.141592653589793 3.13985 0.0017518632864558289 0.0017426535897930862 3.144081818181818 0.0017487257676876483 0.0024891645920250838 3.1414795454545454 3.181818181818841e-05 0.00011310813524767482
890000 3.141592653589793 3.139294382022472 0.0017424019038343108 0.0022982715673212084 3.1421887640449437 0.0017402714586418591 0.0005961104551506224 3.1414471910112356 3.5955056179926004e-05 0.00014546257855752032
900000 3.141592653589793 3.1428 0.0017301278565470244 0.0012073464102067 3.1443555555555553 0.0017289850466769147 0.0027629019657622322 3.1414600000000004 4.888888888876508e-05 0.00013265358979275277
910000 3.141592653589793 3.141389010989011 0.0017216243050982333 0.00020364260078231666 3.1428483516483516 0.0017205601072225129 0.0012556980585585187 3.1414285714285715 7.032967032971627e-05 0.00016408216122165697
920000 3.141592653589793 3.1422739130434785 0.001711600543725953 0.0006812594536853567 3.1439304347826087 0.00171039760200156 0.00233778119281558 3.141476086956522 8.260869565246409e-05 0.00011656663327119787
930000 3.141592653589793 3.142215053763441 0.001702415984365704 0.0006224001736478968 3.1407440860215052 0.0017034761834993234 0.0008485675682878835 3.141427956989247 0.0001290322580644876 0.00016469660054596602
940000 3.141592653589793 3.1414340425531915 0.0016938965298164247 0.00015861103660164133 3.1421957446808513 0.001693350223553748 0.0006030910910581611 3.1414212765957448 0.00011063829787216761 0.0001713769940483445
950000 3.141592653589793 3.1421936842105262 0.0016844157468266134 0.000601030620733134 3.1418484210526314 0.0016846621349037732 0.00025576746283828555 3.1414147368421053 0.000176842105263475 0.00017791674768785626
960000 3.141592653589793 3.144058333333333 0.0016742941702931602 0.0024656797435400613 3.1427375 0.001675233505519252 0.0011448464102068456 3.1414583333333335 0.0001916666666668121 0.0001343202564596524
970000 3.141592653589793 3.1424247422680414 0.0016667969493506822 0.000832088678248244 3.1407958762886596 0.0016679466877691231 0.0007967773011334778 3.141441237113402 0.00023505154639158476 0.00015141647639094202
980000 3.141592653589793 3.144338775510204 0.0016569238669538909 0.0027461219204107934 3.141930612244898 0.0016586183323065193 0.0003379586551046643 3.1414551020408163 0.00024897959183700635 0.00013755154897676647
990000 3.141592653589793 3.143482828282828 0.001649134153421766 0.001890174693035096 3.140909090909091 0.0016509337566876202 0.0006835626807020212 3.141480808080808 0.0001979797979796416 0.0001118455089850201
1000000 3.141592653589793 3.140452 0.0016429757258389426 0.0011406535897933168 3.139952 0.0016433226821583157 0.0016406535897930397 3.14146 0.00018399999999996197 0.00013265358979319686


10000 2.6025805691371464 2.61615994386272 0.01381792602215736 0.01357937472557369 2.6311987367518253 0.013749936263568838 0.028618167614678836 2.6024338297325116 0.0009526562154724694 0.00014673940463483248
20000 2.6025805691371464 2.598548239821088 0.00984623746988492 0.004032329316058458 2.616370915028536 0.009768436020770014 0.0137903458913895 2.602933672177528 0.000992748451515979 0.0003531030403816082
30000 2.6025805691371464 2.5963268281889507 0.008066675087239752 0.006253740948195752 2.5922749616227265 0.008069819093977906 0.01030560751441989 2.6030554115294895 0.0011469617599191295 0.0004748423923430778
40000 2.6025805691371464 2.613107337887473 0.00691246161759512 0.010526768750326543 2.5992689672541758 0.006964277595412025 0.0033116018829706384 2.602559076431046 0.000215108656047569 2.149270610063425e-05
50000 2.6025805691371464 2.5997461639405293 0.006236234494968869 0.0028344051966171513 2.6134379014187354 0.006201989855672335 0.010857332281589027 2.603128499734317 0.000148855044345364 0.0005479305971705095
60000 2.6025805691371464 2.5998630495708546 0.005694936991673776 0.0027175195662918483 2.6012835451611913 0.005678546367636818 0.0012970239759551028 2.6026092409409975 0.000528058688531452 2.8671803851132438e-05
70000 2.6025805691371464 2.6052054739837596 0.0052523388677509835 0.002624904846613152 2.6007596540160614 0.005266767412861882 0.001820915121085065 2.6025488391293474 0.00015629547145312728 3.1730007798991267e-05
80000 2.6025805691371464 2.6059184768396975 0.004908800106777998 0.003337907702551046 2.5988634804340327 0.004934975061596057 0.0037170887031137134 2.6022354482317187 0.0004939463666753241 0.00034512090542770935
90000 2.6025805691371464 2.60415393916721 0.004636895012000284 0.0015733700300635256 2.604716658327529 0.00464132987580793 0.002136089190382773 2.6023951384518593 0.00024954732262072454 0.00018543068528709128
100000 2.6025805691371464 2.6022892162121876 0.004398410996697874 0.00029135292495885423 2.6086369377305636 0.004391165407151309 0.006056368593417183 2.6021438214266737 0.00030923384668657405 0.0004367477104727513
110000 2.6025805691371464 2.607539812996395 0.004193961558762238 0.00495924385924873 2.6073061294400843 0.004191426352161051 0.0047255603029379145 2.60218887049059 0.00037268108656762777 0.00039169864655663744
120000 2.6025805691371464 2.6083534444506262 0.004004854998737451 0.005772875313479808 2.6014480855263686 0.004024962142341644 0.0011324836107777791 2.602127226672776 0.0002568683754748946 0.0004533424643704542
130000 2.6025805691371464 2.6011634822976593 0.0038647490314643977 0.0014170868394871583 2.6038779114435298 0.003860813984992589 0.0012973423063833422 2.6023039739707645 4.574662312206712e-05 0.00027659516638189885
140000 2.6025805691371464 2.6018519751789135 0.0037198342860658077 0.0007285939582328815 2.5976676321186933 0.0037262213607591964 0.0049129370184530785 2.60220147377599 7.623129287193109e-05 0.00037909536115643405
150000 2.6025805691371464 2.601255295687484 0.0035952284709115747 0.0013252734496624896 2.5993546989645897 0.0035997790787185326 0.0032258701725567107 2.6023318030326834 1.6230073951017943e-05 0.0002487661044630052
160000 2.6025805691371464 2.6028644157290763 0.0034832778507319665 0.000283846591929926 2.603134808278959 0.003478596563512114 0.0005542391418127401 2.6024018595360086 8.56119793910537e-05 0.00017870960113786083
170000 2.6025805691371464 2.602637829074816 0.0033771252580072396 5.7259937669584815e-05 2.6051782089412163 0.003370432540975994 0.0025976398040699067 2.602470480385877 0.0002647376408142499 0.0001100887512692772
180000 2.6025805691371464 2.6030759657679807 0.003280261578230448 0.0004953966308343105 2.600943787329469 0.0032784724711046164 0.0016367818076772345 2.6024925349833605 3.3622495019702825e-05 8.803415378588753e-05
190000 2.6025805691371464 2.601138289484764 0.003195177282070296 0.0014422796523825276 2.60165866711997 0.0031939206733873882 0.0009219020171764569 2.602511359945316 0.00036128408050073446 6.920919183039942e-05
200000 2.6025805691371464 2.5988356897253166 0.0031166555750534457 0.0037448794118297712 2.602837173318852 0.0031113597980485367 0.0002566041817053666 2.602457402314731 0.0003392090392240199 0.0001231668224153104
210000 2.6025805691371464 2.5974707909386616 0.0030445461460391334 0.005109778198484793 2.6037892737543196 0.003035243159468697 0.0012087046171731508 2.6025384821642685 0.00012206865083985718 4.20869728778861e-05
220000 2.6025805691371464 2.6012184554021904 0.002968023567085316 0.001362113734955983 2.604838840629532 0.0029639561437400275 0.002258271492385777 2.602503382902409 0.00014286921604167446 7.718623473751407e-05
230000 2.6025805691371464 2.6047592844797998 0.002896797072890291 0.002178715342653348 2.6033531823520666 0.00290275594406028 0.0007726132149201703 2.6025410125771247 3.597168985658428e-05 3.9556560021747345e-05
240000 2.6025805691371464 2.5984739497407774 0.002848002577959508 0.004106619396369027 2.602842141516101 0.0028397762278825093 0.0002615723789545221 2.6024922429674637 0.00018812580628901898 8.832616968268425e-05
250000 2.6025805691371464 2.6095033963170824 0.002773155787629954 0.006922827179935975 2.6038777061290825 0.002781793271811975 0.0012971369919361209 2.602503251156171 0.0002589818356124596 7.731798097543319e-05
260000 2.6025805691371464 2.599222960327793 0.0027356339721069114 0.0033576088093534295 2.603947472614444 0.002726543773645726 0.0013669034772973987 2.602402617385173 0.0001099707904135272 0.0001779517519735485
270000 2.6025805691371464 2.6029234176064673 0.0026814565669228 0.00034284846932086666 2.6065204013011987 0.002673768918164435 0.003939832164052248 2.6024546015623917 0.00024105799245743853 0.0001259675747546929
280000 2.6025805691371464 2.6022879722026433 0.002633003019132235 0.00029259693450311985 2.6053194593482716 0.00262829249926528 0.0027388902111251667 2.602444188289109 0.00033942188358881964 0.00013638084803746509
290000 2.6025805691371464 2.604099647302794 0.002583303410122989 0.0015190781656477803 2.598124236908583 0.002587695892749995 0.004456332228563564 2.6023756855007667 0.00034117364918984094 0.00020488363637971574
300000 2.6025805691371464 2.604746889576946 0.0025373642251693127 0.002166320439799474 2.6047646360695276 0.002539882888503234 0.002184066932381157 2.602462695530729 0.00035752626562279843 0.00011787360641735134
310000 2.6025805691371464 2.6003874040984227 0.0025014287184102093 0.002193165038723688 2.600066904609519 0.002504882821443602 0.0025136645276275793 2.6024078182235177 0.0002291639188918282 0.000172750913628672
320000 2.6025805691371464 2.603001529919229 0.002460203960287608 0.0004209607820824246 2.602133518543613 0.0024596930051746764 0.00044705059353322696 2.6024321348584523 0.00013057550664541395 0.00014843427869415393
330000 2.6025805691371464 2.603022248262293 0.002424308067360125 0.00044167912514669894 2.603809682317766 0.0024204910117031197 0.0012291131806194677 2.602405949891473 0.000102666335397128 0.000174619245673302
340000 2.6025805691371464 2.602763561666668 0.0023860461222960628 0.00018299252952136413 2.602017119074342 0.002387586246910051 0.0005634500628044492 2.602469923976975 8.458807778755073e-05 0.00011064516017134096
350000 2.6025805691371464 2.602793722809817 0.002352431685840324 0.00021315367267060736 2.6049950299943516 0.002350243741554091 0.002414460857205203 2.6024532413109176 0.000138311367992916 0.000127327826228818
360000 2.6025805691371464 2.6006731711778546 0.0023213442610893246 0.0019073979592918455 2.6039819025121247 0.0023182553576011886 0.0014013333749782753 2.6025357337264436 5.4087428079885314e-05 4.483541070277042e-05
370000 2.6025805691371464 2.6044072573416583 0.002287676859591372 0.0018266882045119281 2.6000486399005474 0.002290143039958812 0.002531929236599062 2.602534506939482 6.889096720863463e-05 4.6062197664564763e-05
380000 2.6025805691371464 2.604474067840024 0.0022558535563342065 0.001893498702877583 2.6020177757523952 0.0022589464013040416 0.0005627933847511812 2.6025517818044395 8.463565513050497e-05 2.8787332706947666e-05
390000 2.6025805691371464 2.6018513518390036 0.0022285688764084256 0.0007292172981427925 2.600749892805497 0.002231548393152396 0.0018306763316493502 2.602517912573463 6.491549107501271e-05 6.265656368320549e-05
400000 2.6025805691371464 2.607181754303872 0.0021966823368310346 0.004601185166725585 2.606828304601962 0.0021974218476185177 0.004247735464815605 2.602561423420515 6.305144269846963e-05 1.914571663119702e-05
410000 2.6025805691371464 2.6006911006213103 0.0021771986678012097 0.0018894685158361568 2.602359592304855 0.0021738942984137048 0.00022097683229160836 2.6025440037628904 0.00022017056419842973 3.656537425600348e-05
420000 2.6025805691371464 2.6024049836577836 0.0021490721584457913 0.00017558547936280533 2.6021244325687976 0.0021480458558076295 0.00045613656834886385 2.602549542252626 0.00026098483868697286 3.102688452027991e-05
430000 2.6025805691371464 2.6038412827033994 0.0021203973754901286 0.0012607135662530133 2.604785030570105 0.0021186101262440616 0.0022044614329583823 2.602501016018951 0.00030529856445049575 7.955311819562993e-05
440000 2.6025805691371464 2.6032929608988544 0.002098483899664645 0.0007123917617080089 2.6001493310880677 0.0021013453196022268 0.0024312380490787433 2.602476645678056 0.00020737849024232702 0.00010392345909027156